title="Wall Aircoef Data of PHengLEI"
variables="x", "y", "z", "cp", "cf", "yplus", "Q_NonDim", "Q_Dim(kW/m2)", "pw(Pa)"
zone T = "Zone_2_wall"
N = 144
E = 143
f = FEPOINT
ET = quadrilateral
2.3933799565e-01    -5.4721269757e-02   0.0000000000e+00    -8.9149329829e-02   3.5810935509e-03    5.9986744058e-01    0.0000000000e+00    0.0000000000e+00    3.7440066536e+04    
2.2950139642e-01    -5.3979448974e-02   0.0000000000e+00    -8.1182881158e-02   3.5679074218e-03    5.9964219893e-01    0.0000000000e+00    0.0000000000e+00    3.7555155417e+04    
2.1988210082e-01    -5.3210239857e-02   0.0000000000e+00    -6.6169691290e-02   3.5461411175e-03    5.9933118262e-01    0.0000000000e+00    0.0000000000e+00    3.7772046443e+04    
2.1048159897e-01    -5.2415300161e-02   0.0000000000e+00    -5.2333068289e-02   3.5353990181e-03    5.9957959882e-01    0.0000000000e+00    0.0000000000e+00    3.7971939962e+04    
2.0130489767e-01    -5.1592089236e-02   0.0000000000e+00    -3.7595603580e-02   3.5295263845e-03    6.0035417166e-01    0.0000000000e+00    0.0000000000e+00    3.8184847669e+04    
1.9235409796e-01    -5.0735559314e-02   0.0000000000e+00    -2.1102857535e-02   3.5131965322e-03    6.0073719227e-01    0.0000000000e+00    0.0000000000e+00    3.8423113397e+04    
1.8362879753e-01    -4.9855418503e-02   0.0000000000e+00    -5.3236936570e-03   3.4880643170e-03    6.0033601045e-01    0.0000000000e+00    0.0000000000e+00    3.8651070218e+04    
1.7513130605e-01    -4.8961210996e-02   0.0000000000e+00    9.3587879573e-03    3.4682931924e-03    5.9998526658e-01    0.0000000000e+00    0.0000000000e+00    3.8863183602e+04    
1.6686040163e-01    -4.8049710691e-02   0.0000000000e+00    2.3739351529e-02    3.4548832677e-03    6.0003387411e-01    0.0000000000e+00    0.0000000000e+00    3.9070935266e+04    
1.5881760418e-01    -4.7123130411e-02   0.0000000000e+00    3.7590683288e-02    3.4450127006e-03    6.0027469017e-01    0.0000000000e+00    0.0000000000e+00    3.9271041279e+04    
1.5100049973e-01    -4.6180389822e-02   0.0000000000e+00    5.1488285122e-02    3.4408803566e-03    6.0090346797e-01    0.0000000000e+00    0.0000000000e+00    3.9471815741e+04    
1.4341180027e-01    -4.5219179243e-02   0.0000000000e+00    6.6733234300e-02    3.4355358167e-03    6.0165421479e-01    0.0000000000e+00    0.0000000000e+00    3.9692054923e+04    
1.3604809344e-01    -4.4237729162e-02   0.0000000000e+00    8.3115351889e-02    3.4207338587e-03    6.0188752733e-01    0.0000000000e+00    0.0000000000e+00    3.9928722435e+04    
1.2890879810e-01    -4.3243300170e-02   0.0000000000e+00    9.9314282099e-02    3.4017462361e-03    6.0165607992e-01    0.0000000000e+00    0.0000000000e+00    4.0162743494e+04    
1.2198860198e-01    -4.2237889022e-02   0.0000000000e+00    1.1548814903e-01    3.3856523067e-03    6.0145982244e-01    0.0000000000e+00    0.0000000000e+00    4.0396402471e+04    
1.1528909951e-01    -4.1220851243e-02   0.0000000000e+00    1.3208385972e-01    3.3717314523e-03    6.0143314327e-01    0.0000000000e+00    0.0000000000e+00    4.0636155698e+04    
1.0880579799e-01    -4.0192000568e-02   0.0000000000e+00    1.4947100134e-01    3.3556589311e-03    6.0131553307e-01    0.0000000000e+00    0.0000000000e+00    4.0887342489e+04    
1.0253469646e-01    -3.9151281118e-02   0.0000000000e+00    1.6747684140e-01    3.3355606981e-03    6.0090220902e-01    0.0000000000e+00    0.0000000000e+00    4.1147467429e+04    
9.6475712955e-02    -3.8101881742e-02   0.0000000000e+00    1.8592164888e-01    3.3132277053e-03    6.0024270033e-01    0.0000000000e+00    0.0000000000e+00    4.1413934000e+04    
9.0623162687e-02    -3.7043280900e-02   0.0000000000e+00    2.0495309597e-01    3.2899892443e-03    5.9944594534e-01    0.0000000000e+00    0.0000000000e+00    4.1688875575e+04    
8.4973827004e-02    -3.5976190120e-02   0.0000000000e+00    2.2488084060e-01    3.2662303071e-03    5.9863519946e-01    0.0000000000e+00    0.0000000000e+00    4.1976765692e+04    
7.9524457455e-02    -3.4899748862e-02   0.0000000000e+00    2.4654387635e-01    3.2346134751e-03    5.9740973436e-01    0.0000000000e+00    0.0000000000e+00    4.2289725035e+04    
7.4270896614e-02    -3.3815819770e-02   0.0000000000e+00    2.6895897497e-01    3.1872432100e-03    5.9493282442e-01    0.0000000000e+00    0.0000000000e+00    4.2613549204e+04    
6.9208003581e-02    -3.2732330263e-02   0.0000000000e+00    2.8978501739e-01    3.1375422383e-03    5.9165104371e-01    0.0000000000e+00    0.0000000000e+00    4.2914416758e+04    
6.4330860972e-02    -3.1650990248e-02   0.0000000000e+00    3.0982240619e-01    3.1046254942e-03    5.8921069089e-01    0.0000000000e+00    0.0000000000e+00    4.3203890870e+04    
5.9636820108e-02    -3.0562480912e-02   0.0000000000e+00    3.3164919405e-01    3.0786001811e-03    5.8753806224e-01    0.0000000000e+00    0.0000000000e+00    4.3519215891e+04    
5.5125031620e-02    -2.9462620616e-02   0.0000000000e+00    3.5535170049e-01    3.0425325491e-03    5.8531034524e-01    0.0000000000e+00    0.0000000000e+00    4.3861638853e+04    
5.0789829344e-02    -2.8352620080e-02   0.0000000000e+00    3.8054750548e-01    2.9994747134e-03    5.8244045555e-01    0.0000000000e+00    0.0000000000e+00    4.4225635048e+04    
4.6628009528e-02    -2.7230890468e-02   0.0000000000e+00    4.0801890358e-01    2.9503769558e-03    5.7909230368e-01    0.0000000000e+00    0.0000000000e+00    4.4622506050e+04    
4.2635541409e-02    -2.6095900685e-02   0.0000000000e+00    4.3792117797e-01    2.8838452286e-03    5.7439012118e-01    0.0000000000e+00    0.0000000000e+00    4.5054495190e+04    
3.8806911558e-02    -2.4950230494e-02   0.0000000000e+00    4.6872066075e-01    2.7982672419e-03    5.6764526884e-01    0.0000000000e+00    0.0000000000e+00    4.5499446028e+04    
3.5139650106e-02    -2.3799559101e-02   0.0000000000e+00    4.9911490071e-01    2.7194972558e-03    5.6056108619e-01    0.0000000000e+00    0.0000000000e+00    4.5938542445e+04    
3.1627081335e-02    -2.2637989372e-02   0.0000000000e+00    5.3154644957e-01    2.6635932018e-03    5.5518480223e-01    0.0000000000e+00    0.0000000000e+00    4.6407071250e+04    
2.8276879340e-02    -2.1454699337e-02   0.0000000000e+00    5.6871446117e-01    2.6071176986e-03    5.5046688838e-01    0.0000000000e+00    0.0000000000e+00    4.6944026303e+04    
2.5078110397e-02    -2.0243270323e-02   0.0000000000e+00    6.1020205596e-01    2.5211873810e-03    5.4367542889e-01    0.0000000000e+00    0.0000000000e+00    4.7543385071e+04    
2.2033149377e-02    -1.9011320546e-02   0.0000000000e+00    6.5304422027e-01    2.4145907108e-03    5.3425603630e-01    0.0000000000e+00    0.0000000000e+00    4.8162312897e+04    
1.9133469090e-02    -1.7765799537e-02   0.0000000000e+00    6.9570957309e-01    2.3383155703e-03    5.2599716872e-01    0.0000000000e+00    0.0000000000e+00    4.8778686381e+04    
1.6378020868e-02    -1.6494410113e-02   0.0000000000e+00    7.4273839699e-01    2.2899615490e-03    5.1983331285e-01    0.0000000000e+00    0.0000000000e+00    4.9458097615e+04    
1.3786099851e-02    -1.5177680179e-02   0.0000000000e+00    7.9331420616e-01    2.2360392446e-03    5.1317174874e-01    0.0000000000e+00    0.0000000000e+00    5.0188751076e+04    
1.1342490092e-02    -1.3808799908e-02   0.0000000000e+00    8.4906146589e-01    2.1601734966e-03    5.0317791807e-01    0.0000000000e+00    0.0000000000e+00    5.0994114923e+04    
9.0823313221e-03    -1.2378370389e-02   0.0000000000e+00    9.1233489526e-01    1.9506694648e-03    4.7713637878e-01    0.0000000000e+00    0.0000000000e+00    5.1908207073e+04    
6.9914781488e-03    -1.0865660384e-02   0.0000000000e+00    9.6622416004e-01    1.6162637851e-03    4.3547008087e-01    0.0000000000e+00    0.0000000000e+00    5.2686729027e+04    
5.0912718289e-03    -9.2936055735e-03   0.0000000000e+00    1.0242342552e+00    1.2742073249e-03    3.8092481704e-01    0.0000000000e+00    0.0000000000e+00    5.3524783376e+04    
3.3291080035e-03    -7.6685459353e-03   0.0000000000e+00    1.1160162307e+00    7.7074631931e-04    2.7930600139e-01    0.0000000000e+00    0.0000000000e+00    5.4850729893e+04    
1.9473549910e-03    -5.9082647786e-03   0.0000000000e+00    1.1909485716e+00    -2.8290204671e-04   2.6109346553e-01    0.0000000000e+00    0.0000000000e+00    5.5933254820e+04    
8.8227621745e-04    -3.9692618884e-03   0.0000000000e+00    1.1524303438e+00    -1.8831555746e-03   4.0488199479e-01    0.0000000000e+00    0.0000000000e+00    5.5376793602e+04    
2.8197179199e-04    -1.9892300479e-03   0.0000000000e+00    9.5833029547e-01    -4.1168218100e-03   5.8642601709e-01    0.0000000000e+00    0.0000000000e+00    5.2572688747e+04    
0.0000000000e+00    0.0000000000e+00    0.0000000000e+00    6.6180604204e-01    8.4700673951e-04    7.0626134397e-01    0.0000000000e+00    0.0000000000e+00    4.8288892294e+04    
2.7052749647e-04    1.9948659465e-03    0.0000000000e+00    3.6828095383e-01    8.0582199489e-03    7.7078034708e-01    0.0000000000e+00    0.0000000000e+00    4.4048423876e+04    
8.7229412748e-04    3.9663137868e-03    0.0000000000e+00    4.8660050880e-03    9.1300104731e-03    7.8625266591e-01    0.0000000000e+00    0.0000000000e+00    3.8798277723e+04    
2.0085810684e-03    5.8666002005e-03    0.0000000000e+00    -3.3074964986e-01   8.6372997164e-03    7.4135458327e-01    0.0000000000e+00    0.0000000000e+00    3.3949739582e+04    
3.4307360183e-03    7.6106837951e-03    0.0000000000e+00    -5.2539260835e-01   7.5475502674e-03    6.9549213274e-01    0.0000000000e+00    0.0000000000e+00    3.1137791468e+04    
5.1776771434e-03    9.2442389578e-03    0.0000000000e+00    -6.3512011399e-01   7.0265533372e-03    6.7934593868e-01    0.0000000000e+00    0.0000000000e+00    2.9552591290e+04    
7.0643560030e-03    1.0835779831e-02    0.0000000000e+00    -7.1328251954e-01   7.2176341799e-03    6.8329027723e-01    0.0000000000e+00    0.0000000000e+00    2.8423402592e+04    
9.1390507296e-03    1.2370579876e-02    0.0000000000e+00    -8.7653665616e-01   7.4993913883e-03    6.7274173288e-01    0.0000000000e+00    0.0000000000e+00    2.6064919320e+04    
1.1391920038e-02    1.3815159909e-02    0.0000000000e+00    -1.0066917083e+00   7.2467837481e-03    6.4436654865e-01    0.0000000000e+00    0.0000000000e+00    2.4184608538e+04    
1.3833940029e-02    1.5192589723e-02    0.0000000000e+00    -1.0899998180e+00   6.8740034243e-03    6.1804303770e-01    0.0000000000e+00    0.0000000000e+00    2.2981081405e+04    
1.6428489238e-02    1.6505489126e-02    0.0000000000e+00    -1.1498242328e+00   6.6259218293e-03    6.0012897377e-01    0.0000000000e+00    0.0000000000e+00    2.2116816127e+04    
1.9192120060e-02    1.7763810232e-02    0.0000000000e+00    -1.1914689769e+00   6.3865893463e-03    5.8572880895e-01    0.0000000000e+00    0.0000000000e+00    2.1515187070e+04    
2.2104740143e-02    1.8984129652e-02    0.0000000000e+00    -1.2131628538e+00   6.2006191264e-03    5.7601197631e-01    0.0000000000e+00    0.0000000000e+00    2.1201782174e+04    
2.5168780237e-02    2.0173849538e-02    0.0000000000e+00    -1.2295962058e+00   6.0839983053e-03    5.6955127594e-01    0.0000000000e+00    0.0000000000e+00    2.0964374494e+04    
2.8387179598e-02    2.1336920559e-02    0.0000000000e+00    -1.2408980228e+00   5.9497112580e-03    5.6304209707e-01    0.0000000000e+00    0.0000000000e+00    2.0801100553e+04    
3.1755119562e-02    2.2479619831e-02    0.0000000000e+00    -1.2475857030e+00   5.8300629571e-03    5.5794704606e-01    0.0000000000e+00    0.0000000000e+00    2.0704485654e+04    
3.5281930119e-02    2.3603240028e-02    0.0000000000e+00    -1.2465664070e+00   5.7132981791e-03    5.5413929123e-01    0.0000000000e+00    0.0000000000e+00    2.0719211116e+04    
3.8962941617e-02    2.4719439447e-02    0.0000000000e+00    -1.2375888544e+00   5.5968397128e-03    5.5105665119e-01    0.0000000000e+00    0.0000000000e+00    2.0848907111e+04    
4.2803410441e-02    2.5831269100e-02    0.0000000000e+00    -1.2302173481e+00   5.5206884384e-03    5.4933057632e-01    0.0000000000e+00    0.0000000000e+00    2.0955401040e+04    
4.6807609499e-02    2.6937330142e-02    0.0000000000e+00    -1.2249383547e+00   5.4523439270e-03    5.4766460757e-01    0.0000000000e+00    0.0000000000e+00    2.1031665064e+04    
5.0977729261e-02    2.8038360178e-02    0.0000000000e+00    -1.2200827335e+00   5.3802621362e-03    5.4580527769e-01    0.0000000000e+00    0.0000000000e+00    2.1101812760e+04    
5.5320359766e-02    2.9134830460e-02    0.0000000000e+00    -1.2146168013e+00   5.3020601789e-03    5.4375507957e-01    0.0000000000e+00    0.0000000000e+00    2.1180777434e+04    
5.9836901724e-02    3.0230350792e-02    0.0000000000e+00    -1.2077999748e+00   5.2335038040e-03    5.4219668104e-01    0.0000000000e+00    0.0000000000e+00    2.1279258070e+04    
6.4531832933e-02    3.1326361001e-02    0.0000000000e+00    -1.2019576671e+00   5.1766503298e-03    5.4088617764e-01    0.0000000000e+00    0.0000000000e+00    2.1363660126e+04    
6.9410063326e-02    3.2421600074e-02    0.0000000000e+00    -1.1966207970e+00   5.1149956561e-03    5.3922594233e-01    0.0000000000e+00    0.0000000000e+00    2.1440760279e+04    
7.4474528432e-02    3.3515989780e-02    0.0000000000e+00    -1.1908698657e+00   5.0595396214e-03    5.3783793144e-01    0.0000000000e+00    0.0000000000e+00    2.1523842249e+04    
7.9730696976e-02    3.4609779716e-02    0.0000000000e+00    -1.1862156646e+00   5.0136918886e-03    5.3665516154e-01    0.0000000000e+00    0.0000000000e+00    2.1591080089e+04    
8.5181839764e-02    3.5699058324e-02    0.0000000000e+00    -1.1822986722e+00   4.9658117070e-03    5.3527971055e-01    0.0000000000e+00    0.0000000000e+00    2.1647667697e+04    
9.0832866728e-02    3.6783769727e-02    0.0000000000e+00    -1.1784438396e+00   4.9235174479e-03    5.3415660465e-01    0.0000000000e+00    0.0000000000e+00    2.1703357301e+04    
9.6687227488e-02    3.7862788886e-02    0.0000000000e+00    -1.1757226818e+00   4.8874577369e-03    5.3314569434e-01    0.0000000000e+00    0.0000000000e+00    2.1742669047e+04    
1.0274849832e-01    3.8933560252e-02    0.0000000000e+00    -1.1734080305e+00   4.8459946150e-03    5.3184771208e-01    0.0000000000e+00    0.0000000000e+00    2.1776108116e+04    
1.0902050138e-01    3.9996888489e-02    0.0000000000e+00    -1.1707211554e+00   4.7984966915e-03    5.3043911577e-01    0.0000000000e+00    0.0000000000e+00    2.1814924590e+04    
1.1550530046e-01    4.1054580361e-02    0.0000000000e+00    -1.1682711417e+00   4.7784999175e-03    5.3028725242e-01    0.0000000000e+00    0.0000000000e+00    2.1850319199e+04    
1.2220620364e-01    4.2108111084e-02    0.0000000000e+00    -1.1674643973e+00   4.7588650908e-03    5.2958243548e-01    0.0000000000e+00    0.0000000000e+00    2.1861973993e+04    
1.2912610173e-01    4.3152000755e-02    0.0000000000e+00    -1.1680084216e+00   4.7293358920e-03    5.2816405339e-01    0.0000000000e+00    0.0000000000e+00    2.1854114638e+04    
1.3626739383e-01    4.4185589999e-02    0.0000000000e+00    -1.1696528110e+00   4.7245293244e-03    5.2773361109e-01    0.0000000000e+00    0.0000000000e+00    2.1830358640e+04    
1.4363320172e-01    4.5205108821e-02    0.0000000000e+00    -1.1750827330e+00   4.7135868573e-03    5.2639304238e-01    0.0000000000e+00    0.0000000000e+00    2.1751914194e+04    
1.5122550726e-01    4.6196319163e-02    0.0000000000e+00    -1.1807693253e+00   4.6915896985e-03    5.2488430276e-01    0.0000000000e+00    0.0000000000e+00    2.1669761710e+04    
1.5904650092e-01    4.7162979841e-02    0.0000000000e+00    -1.1812678390e+00   4.6448194473e-03    5.2289226658e-01    0.0000000000e+00    0.0000000000e+00    2.1662559832e+04    
1.6709449887e-01    4.8116270453e-02    0.0000000000e+00    -1.1790165702e+00   4.5863019338e-03    5.2043424861e-01    0.0000000000e+00    0.0000000000e+00    2.1695083235e+04    
1.7537030578e-01    4.9056578428e-02    0.0000000000e+00    -1.1765567406e+00   4.5416151110e-03    5.1872147371e-01    0.0000000000e+00    0.0000000000e+00    2.1730619651e+04    
1.8387320638e-01    4.9985390157e-02    0.0000000000e+00    -1.1737309310e+00   4.5035818666e-03    5.1737059122e-01    0.0000000000e+00    0.0000000000e+00    2.1771443270e+04    
1.9260300696e-01    5.0904721022e-02    0.0000000000e+00    -1.1713277693e+00   4.4734459047e-03    5.1626919452e-01    0.0000000000e+00    0.0000000000e+00    2.1806161022e+04    
2.0155860484e-01    5.1811449230e-02    0.0000000000e+00    -1.1695242414e+00   4.4448210627e-03    5.1513176776e-01    0.0000000000e+00    0.0000000000e+00    2.1832216045e+04    
2.1073859930e-01    5.2704360336e-02    0.0000000000e+00    -1.1677916860e+00   4.4115148949e-03    5.1381747196e-01    0.0000000000e+00    0.0000000000e+00    2.1857245751e+04    
2.2014109790e-01    5.3582120687e-02    0.0000000000e+00    -1.1655992727e+00   4.3989846787e-03    5.1363031385e-01    0.0000000000e+00    0.0000000000e+00    2.1888918884e+04    
2.2976310551e-01    5.4446209222e-02    0.0000000000e+00    -1.1649348391e+00   4.4097786459e-03    5.1400563653e-01    0.0000000000e+00    0.0000000000e+00    2.1898517757e+04    
2.3960199952e-01    5.5289030075e-02    0.0000000000e+00    -1.1713407492e+00   4.4137971680e-03    5.1298069776e-01    0.0000000000e+00    0.0000000000e+00    2.1805973506e+04    
2.4965590239e-01    5.6081119925e-02    0.0000000000e+00    -1.1803924310e+00   4.4161299837e-03    5.1188495751e-01    0.0000000000e+00    0.0000000000e+00    2.1675206589e+04    
2.5992009044e-01    5.6830059737e-02    0.0000000000e+00    -1.1886182874e+00   4.4186049389e-03    5.1098472115e-01    0.0000000000e+00    0.0000000000e+00    2.1556370122e+04    
2.7038869262e-01    5.7527970523e-02    0.0000000000e+00    -1.1967752910e+00   4.4059896864e-03    5.0940611097e-01    0.0000000000e+00    0.0000000000e+00    2.1438528352e+04    
2.8105619550e-01    5.8180879802e-02    0.0000000000e+00    -1.2010342820e+00   4.3745512884e-03    5.0742155178e-01    0.0000000000e+00    0.0000000000e+00    2.1376999993e+04    
2.9191461205e-01    5.8799281716e-02    0.0000000000e+00    -1.2024607692e+00   4.3426423948e-03    5.0559068954e-01    0.0000000000e+00    0.0000000000e+00    2.1356391962e+04    
3.0295699835e-01    5.9385649860e-02    0.0000000000e+00    -1.2039716331e+00   4.3155328560e-03    5.0390190090e-01    0.0000000000e+00    0.0000000000e+00    2.1334564968e+04    
3.1417548656e-01    5.9934590012e-02    0.0000000000e+00    -1.2055792756e+00   4.2973375955e-03    5.0264246787e-01    0.0000000000e+00    0.0000000000e+00    2.1311339841e+04    
3.2556200027e-01    6.0449808836e-02    0.0000000000e+00    -1.2082282281e+00   4.2823426673e-03    5.0138480441e-01    0.0000000000e+00    0.0000000000e+00    2.1273071223e+04    
3.3710750937e-01    6.0919821262e-02    0.0000000000e+00    -1.2117462564e+00   4.2701091603e-03    5.0014843329e-01    0.0000000000e+00    0.0000000000e+00    2.1222247329e+04    
3.4880229831e-01    6.1350438744e-02    0.0000000000e+00    -1.2165063405e+00   4.2630568894e-03    4.9903278279e-01    0.0000000000e+00    0.0000000000e+00    2.1153479830e+04    
3.6063650250e-01    6.1727680266e-02    0.0000000000e+00    -1.2219670155e+00   4.2604756810e-03    4.9801646145e-01    0.0000000000e+00    0.0000000000e+00    2.1074591106e+04    
3.7259930372e-01    6.2060959637e-02    0.0000000000e+00    -1.2290495881e+00   4.2607536688e-03    4.9693621134e-01    0.0000000000e+00    0.0000000000e+00    2.0972271316e+04    
3.8467940688e-01    6.2330570072e-02    0.0000000000e+00    -1.2364057704e+00   4.2521206100e-03    4.9539236823e-01    0.0000000000e+00    0.0000000000e+00    2.0865998769e+04    
3.9686539769e-01    6.2552750111e-02    0.0000000000e+00    -1.2429813708e+00   4.2387733176e-03    4.9375368596e-01    0.0000000000e+00    0.0000000000e+00    2.0771003053e+04    
4.0914449096e-01    6.2712512910e-02    0.0000000000e+00    -1.2489375117e+00   4.2421663264e-03    4.9272346422e-01    0.0000000000e+00    0.0000000000e+00    2.0684956482e+04    
4.2150458694e-01    6.2832377851e-02    0.0000000000e+00    -1.2594809151e+00   4.2422141913e-03    4.9115473944e-01    0.0000000000e+00    0.0000000000e+00    2.0532639113e+04    
4.3393218517e-01    6.2854968011e-02    0.0000000000e+00    -1.2650125245e+00   4.2123710112e-03    4.8931123332e-01    0.0000000000e+00    0.0000000000e+00    2.0452725620e+04    
4.4641470909e-01    6.2859617174e-02    0.0000000000e+00    -1.2633807126e+00   4.2084371517e-03    4.8858403445e-01    0.0000000000e+00    0.0000000000e+00    2.0476299914e+04    
4.5893821120e-01    6.2821596861e-02    0.0000000000e+00    -1.2767479362e+00   4.2245246428e-03    4.8686990712e-01    0.0000000000e+00    0.0000000000e+00    2.0283187668e+04    
4.7148919106e-01    6.2665402889e-02    0.0000000000e+00    -1.2879628471e+00   4.2176880499e-03    4.8524769111e-01    0.0000000000e+00    0.0000000000e+00    2.0121169231e+04    
4.8405379057e-01    6.2470808625e-02    0.0000000000e+00    -1.2928461107e+00   4.1953691383e-03    4.8327586147e-01    0.0000000000e+00    0.0000000000e+00    2.0050622196e+04    
4.9661830068e-01    6.2201518565e-02    0.0000000000e+00    -1.3014464498e+00   4.1768297479e-03    4.8063984746e-01    0.0000000000e+00    0.0000000000e+00    1.9926375690e+04    
5.0916802883e-01    6.1865281314e-02    0.0000000000e+00    -1.3103281818e+00   4.1598314237e-03    4.7839701731e-01    0.0000000000e+00    0.0000000000e+00    1.9798063987e+04    
5.2168989182e-01    6.1445109546e-02    0.0000000000e+00    -1.3148890313e+00   4.0515430400e-03    4.7224469112e-01    0.0000000000e+00    0.0000000000e+00    1.9732174770e+04    
5.3416931629e-01    6.0966908932e-02    0.0000000000e+00    -1.2974028680e+00   3.5741211399e-03    4.4678410275e-01    0.0000000000e+00    0.0000000000e+00    1.9984792097e+04    
5.4659360647e-01    6.0415178537e-02    0.0000000000e+00    -1.1946506344e+00   2.3255306874e-03    3.6407357662e-01    0.0000000000e+00    0.0000000000e+00    2.1469222625e+04    
5.5894792080e-01    5.9786960483e-02    0.0000000000e+00    -9.7276263317e-01   7.3668808070e-04    1.6765865739e-01    0.0000000000e+00    0.0000000000e+00    2.4674771653e+04    
5.7121980190e-01    5.9079241008e-02    0.0000000000e+00    -7.4791693514e-01   2.9645391898e-05    4.5664333711e-02    0.0000000000e+00    0.0000000000e+00    2.7923049636e+04    
5.8339679241e-01    5.8311309665e-02    0.0000000000e+00    -6.2721213970e-01   9.2092871363e-05    8.1637636729e-02    0.0000000000e+00    0.0000000000e+00    2.9666835409e+04    
5.9546649456e-01    5.7478521019e-02    0.0000000000e+00    -5.6519724574e-01   1.9915220589e-04    1.2548726351e-01    0.0000000000e+00    0.0000000000e+00    3.0562745878e+04    
6.0741782188e-01    5.6593939662e-02    0.0000000000e+00    -5.1679078403e-01   3.2968524143e-04    1.6417364785e-01    0.0000000000e+00    0.0000000000e+00    3.1262059430e+04    
6.1923927069e-01    5.5654820055e-02    0.0000000000e+00    -4.8334359228e-01   4.6117916975e-04    1.9666706214e-01    0.0000000000e+00    0.0000000000e+00    3.1745260921e+04    
6.3091981411e-01    5.4669391364e-02    0.0000000000e+00    -4.5590051444e-01   5.7670683844e-04    2.2170279075e-01    0.0000000000e+00    0.0000000000e+00    3.2141722789e+04    
6.4244997501e-01    5.3637549281e-02    0.0000000000e+00    -4.3300045398e-01   6.8444315650e-04    2.4306122073e-01    0.0000000000e+00    0.0000000000e+00    3.2472553056e+04    
6.5382081270e-01    5.2574850619e-02    0.0000000000e+00    -4.1294786771e-01   7.7897498028e-04    2.6041310768e-01    0.0000000000e+00    0.0000000000e+00    3.2762246721e+04    
6.6502237320e-01    5.1472291350e-02    0.0000000000e+00    -3.9538134792e-01   8.4541704073e-04    2.7221825851e-01    0.0000000000e+00    0.0000000000e+00    3.3016024935e+04    
6.7604160309e-01    5.0297681242e-02    0.0000000000e+00    -3.7762213620e-01   8.7400082416e-04    2.7857477064e-01    0.0000000000e+00    0.0000000000e+00    3.3272586910e+04    
6.8687409163e-01    4.9069490284e-02    0.0000000000e+00    -3.5729192659e-01   8.9962144027e-04    2.8504747810e-01    0.0000000000e+00    0.0000000000e+00    3.3566291316e+04    
6.9752418995e-01    4.7900389880e-02    0.0000000000e+00    -3.3922821859e-01   9.5936635363e-04    2.9520405051e-01    0.0000000000e+00    0.0000000000e+00    3.3827252257e+04    
7.0798307657e-01    4.6775300056e-02    0.0000000000e+00    -3.2765434211e-01   1.0164869042e-03    3.0330713290e-01    0.0000000000e+00    0.0000000000e+00    3.3994456560e+04    
7.1823310852e-01    4.5586489141e-02    0.0000000000e+00    -3.1634412774e-01   1.0194146421e-03    3.0444984374e-01    0.0000000000e+00    0.0000000000e+00    3.4157851816e+04    
7.2826772928e-01    4.4320080429e-02    0.0000000000e+00    -2.9939422515e-01   9.9709020250e-04    3.0360088602e-01    0.0000000000e+00    0.0000000000e+00    3.4402721946e+04    
7.3809492588e-01    4.3084651232e-02    0.0000000000e+00    -2.8154493539e-01   1.0080827770e-03    3.0696369215e-01    0.0000000000e+00    0.0000000000e+00    3.4660585252e+04    
7.4771457911e-01    4.1914749891e-02    0.0000000000e+00    -2.6888452147e-01   1.0406759546e-03    3.1176208322e-01    0.0000000000e+00    0.0000000000e+00    3.4843486433e+04    
7.5711488724e-01    4.0741629899e-02    0.0000000000e+00    -2.5856249614e-01   1.0477464438e-03    3.1279650480e-01    0.0000000000e+00    0.0000000000e+00    3.4992605620e+04    
7.6628851891e-01    3.9525300264e-02    0.0000000000e+00    -2.4563118735e-01   1.0259035444e-03    3.1072642119e-01    0.0000000000e+00    0.0000000000e+00    3.5179420337e+04    
7.7523690462e-01    3.8299970329e-02    0.0000000000e+00    -2.3062260642e-01   1.0041771257e-03    3.0890187047e-01    0.0000000000e+00    0.0000000000e+00    3.5396244779e+04    
7.8396350145e-01    3.7095699459e-02    0.0000000000e+00    -2.1658196852e-01   9.9213396596e-04    3.0796086725e-01    0.0000000000e+00    0.0000000000e+00    3.5599085640e+04    
7.9246497154e-01    3.5905450583e-02    0.0000000000e+00    -2.1016595654e-01   9.8708589399e-04    3.0749261417e-01    0.0000000000e+00    0.0000000000e+00    3.5691775830e+04    
1  2  1  1  
2  3  2  2  
3  4  3  3  
4  5  4  4  
5  6  5  5  
6  7  6  6  
7  8  7  7  
8  9  8  8  
9  10  9  9  
10  11  10  10  
11  12  11  11  
12  13  12  12  
13  14  13  13  
14  15  14  14  
15  16  15  15  
16  17  16  16  
17  18  17  17  
18  19  18  18  
19  20  19  19  
20  21  20  20  
21  22  21  21  
22  23  22  22  
23  24  23  23  
24  25  24  24  
25  26  25  25  
26  27  26  26  
27  28  27  27  
28  29  28  28  
29  30  29  29  
30  31  30  30  
31  32  31  31  
32  33  32  32  
33  34  33  33  
34  35  34  34  
35  36  35  35  
36  37  36  36  
37  38  37  37  
38  39  38  38  
39  40  39  39  
40  41  40  40  
41  42  41  41  
42  43  42  42  
43  44  43  43  
44  45  44  44  
45  46  45  45  
46  47  46  46  
47  48  47  47  
48  49  48  48  
49  50  49  49  
50  51  50  50  
51  52  51  51  
52  53  52  52  
53  54  53  53  
54  55  54  54  
55  56  55  55  
56  57  56  56  
57  58  57  57  
58  59  58  58  
59  60  59  59  
60  61  60  60  
61  62  61  61  
62  63  62  62  
63  64  63  63  
64  65  64  64  
65  66  65  65  
66  67  66  66  
67  68  67  67  
68  69  68  68  
69  70  69  69  
70  71  70  70  
71  72  71  71  
72  73  72  72  
73  74  73  73  
74  75  74  74  
75  76  75  75  
76  77  76  76  
77  78  77  77  
78  79  78  78  
79  80  79  79  
80  81  80  80  
81  82  81  81  
82  83  82  82  
83  84  83  83  
84  85  84  84  
85  86  85  85  
86  87  86  86  
87  88  87  87  
88  89  88  88  
89  90  89  89  
90  91  90  90  
91  92  91  91  
92  93  92  92  
93  94  93  93  
94  95  94  94  
95  96  95  95  
96  97  96  96  
97  98  97  97  
98  99  98  98  
99  100  99  99  
100  101  100  100  
101  102  101  101  
102  103  102  102  
103  104  103  103  
104  105  104  104  
105  106  105  105  
106  107  106  106  
107  108  107  107  
108  109  108  108  
109  110  109  109  
110  111  110  110  
111  112  111  111  
112  113  112  112  
113  114  113  113  
114  115  114  114  
115  116  115  115  
116  117  116  116  
117  118  117  117  
118  119  118  118  
119  120  119  119  
120  121  120  120  
121  122  121  121  
122  123  122  122  
123  124  123  123  
124  125  124  124  
125  126  125  125  
126  127  126  126  
127  128  127  127  
128  129  128  128  
129  130  129  129  
130  131  130  130  
131  132  131  131  
132  133  132  132  
133  134  133  133  
134  135  134  134  
135  136  135  135  
136  137  136  136  
137  138  137  137  
138  139  138  138  
139  140  139  139  
140  141  140  140  
141  142  141  141  
142  143  142  142  
143  144  143  143  
zone T = "Zone_3_wall"
N = 162
E = 161
f = FEPOINT
ET = quadrilateral
1.0000000000e+00    0.0000000000e+00    0.0000000000e+00    4.3835351684e-02    4.0287935176e-03    3.9181616929e-01    0.0000000000e+00    0.0000000000e+00    3.9361256119e+04    
9.9900031090e-01    -1.3740630038e-06   0.0000000000e+00    1.6334984060e-01    3.8285352918e-03    4.8813480752e-01    0.0000000000e+00    0.0000000000e+00    4.1087845893e+04    
9.9908882380e-01    3.9022910642e-04    0.0000000000e+00    2.5960032278e-02    3.1133809854e-03    3.8704015445e-01    0.0000000000e+00    0.0000000000e+00    3.9103016771e+04    
9.9795627594e-01    6.6346561653e-05    0.0000000000e+00    2.2086387707e-01    2.7523299285e-03    5.4849165692e-01    0.0000000000e+00    0.0000000000e+00    4.1918733831e+04    
9.9686479568e-01    1.3105300604e-04    0.0000000000e+00    2.2631041385e-01    2.4242986280e-03    5.2308826456e-01    0.0000000000e+00    0.0000000000e+00    4.1997418305e+04    
9.9572378397e-01    1.9646750297e-04    0.0000000000e+00    2.3292344365e-01    2.3055180969e-03    5.1041720268e-01    0.0000000000e+00    0.0000000000e+00    4.2092954752e+04    